                         Program Version 2.9.0 -  RELEASE  -
|  1> # Raman frequency single point restricted B3LYP/sto-3g calc
|  2> ! RKS STO-3G B3LYP UseSym NumFreq
|  3> %elprop Polar 1
|  4> end
|  5> * xyz 0 1
|  6>  C                  0.27867948   -1.36683162    0.00000000
|  7>  C                  1.32303041   -0.44173575    0.00000000
|  8>  C                  1.04434506    0.92484978    0.00000000
|  9>  C                 -0.27867948    1.36683162    0.00000000
| 10>  C                 -1.32303041    0.44173575    0.00000000
| 11>  C                 -1.04434506   -0.92484978    0.00000000
| 12>  H                  2.36595443   -0.79037726    0.00000000
| 13>  H                  1.86746094    1.65407997    0.00000000
| 14>  H                 -2.36595443    0.79037726    0.00000000
| 15>  H                 -1.86746094   -1.65407997    0.00000000
| 16>  C                 -0.58659169    2.87589931    0.00000000
| 17>  C                  0.36350188    3.80076420    0.00000000
| 18>  H                 -1.65647768    3.12394312    0.00000000
| 19>  H                  0.14429560    4.87693235    0.00000000
| 20>  H                  1.43338788    3.55272039    0.00000000
| 21>  C                  0.58659169   -2.87589931    0.00000000
| 22>  C                 -0.36350188   -3.80076420    0.00000000
| 23>  H                  1.65647768   -3.12394312    0.00000000
| 24>  H                 -0.14429560   -4.87693235    0.00000000
| 25>  H                 -1.43338788   -3.55272039    0.00000000
| 26> *
| 27>
| 28>
| 29>                          ****END OF INPUT****

CARTESIAN COORDINATES (ANGSTROEM)
---------------------------------
  C      1.394952    0.000000    0.000000
  C      0.697142    1.208111    0.000000
  C     -0.697570    1.208056    0.000000
  C     -1.394952   -0.000000    0.000000
  C     -0.697142   -1.208111    0.000000
  C      0.697570   -1.208056    0.000000
  H      1.247108    2.160361    0.000000
  H     -1.247660    2.160263    0.000000
  H     -1.247108   -2.160361    0.000000
  H      1.247660   -2.160263    0.000000
  C     -2.935113   -0.000228    0.000000
  C     -3.651527    1.115480    0.000000
  H     -3.391895   -0.998993    0.000000
  H     -4.749793    1.115686    0.000000
  H     -3.194744    2.114245    0.000000
  C      2.935113    0.000228    0.000000
  C      3.651527   -1.115480    0.000000
  H      3.391895    0.998993    0.000000
  H      4.749793   -1.115686    0.000000
  H      3.194744   -2.114245    0.000000

 Total Charge           Charge          ....    0
 Multiplicity           Mult            ....    1
 Number of Electrons    NEL             ....   70
 Basis Dimension        Dim             ....   60

ORBITAL ENERGIES
----------------

  NO   OCC          E(Eh)            E(eV)    Irrep
   0   2.0000     -10.013929      -272.4929    1-Bu
   1   2.0000     -10.013864      -272.4911    1-Ag
   2   2.0000     -10.003509      -272.2093    2-Bu
   3   2.0000     -10.003508      -272.2093    2-Ag
   4   2.0000     -10.002743      -272.1885    3-Bu
   5   2.0000     -10.002709      -272.1875    3-Ag
   6   2.0000     -10.001653      -272.1588    4-Bu
   7   2.0000     -10.001545      -272.1559    4-Ag
   8   2.0000      -9.988108      -271.7902    5-Bu
   9   2.0000      -9.988108      -271.7902    5-Ag
  10   2.0000      -0.814351       -22.1596    6-Ag
  11   2.0000      -0.751399       -20.4466    6-Bu
  12   2.0000      -0.717011       -19.5109    7-Ag
  13   2.0000      -0.700457       -19.0604    7-Bu
  14   2.0000      -0.666543       -18.1375    8-Bu
  15   2.0000      -0.581441       -15.8218    8-Ag
  16   2.0000      -0.556947       -15.1553    9-Ag
  17   2.0000      -0.528214       -14.3734    9-Bu
  18   2.0000      -0.508444       -13.8355   10-Ag
  19   2.0000      -0.458267       -12.4701   11-Ag
  20   2.0000      -0.434947       -11.8355   10-Bu
  21   2.0000      -0.406756       -11.0684   11-Bu
  22   2.0000      -0.395916       -10.7734   12-Bu
  23   2.0000      -0.393538       -10.7087   12-Ag
  24   2.0000      -0.371849       -10.1185   13-Bu
  25   2.0000      -0.354149        -9.6369   14-Bu
  26   2.0000      -0.345325        -9.3968   13-Ag
  27   2.0000      -0.326474        -8.8838    1-Au
  28   2.0000      -0.301609        -8.2072   15-Bu
  29   2.0000      -0.291777        -7.9397   14-Ag
  30   2.0000      -0.277235        -7.5440   15-Ag
  31   2.0000      -0.259435        -7.0596    1-Bg
  32   2.0000      -0.212259        -5.7759    2-Au
  33   2.0000      -0.193833        -5.2745    2-Bg
  34   2.0000      -0.156338        -4.2542    3-Bg
  35   0.0000       0.053305         1.4505    3-Au
  36   0.0000       0.094484         2.5710    4-Au
  37   0.0000       0.120226         3.2715    4-Bg
  38   0.0000       0.185211         5.0398    5-Au
  39   0.0000       0.284067         7.7299    5-Bg

MULLIKEN ATOMIC CHARGES
-----------------------
   0 C :   -0.004093
   1 C :   -0.078868
   2 C :   -0.077027
   3 C :   -0.004093
   4 C :   -0.078868
   5 C :   -0.077027
   6 H :    0.078371
   7 H :    0.079538
   8 H :    0.078371
   9 H :    0.079538
  10 C :   -0.075220
  11 C :   -0.155828
  12 H :    0.078596
  13 H :    0.078019
  14 H :    0.076511
  15 C :   -0.075220
  16 C :   -0.155828
  17 H :    0.078596
  18 H :    0.078019
  19 H :    0.076511
Sum of atomic charges:   -0.0000000

LOEWDIN ATOMIC CHARGES
----------------------
   0 C :    0.003230
   1 C :   -0.045754
   2 C :   -0.045196
   3 C :    0.003230
   4 C :   -0.045754
   5 C :   -0.045196
   6 H :    0.042776
   7 H :    0.045001
   8 H :    0.042776
   9 H :    0.045001
  10 C :   -0.037565
  11 C :   -0.093714
  12 H :    0.042726
  13 H :    0.044208
  14 H :    0.044287
  15 C :   -0.037565
  16 C :   -0.093714
  17 H :    0.042726
  18 H :    0.044208
  19 H :    0.044287

  Mayer bond orders larger than 0.1
B(  0-C ,  1-C ) :   1.3850 B(  0-C ,  5-C ) :   1.3879 B(  0-C , 15-C ) :   1.0300
B(  1-C ,  2-C ) :   1.4504 B(  1-C ,  4-C ) :   0.1048 B(  1-C ,  6-H ) :   0.9612
B(  2-C ,  3-C ) :   1.3879 B(  2-C ,  5-C ) :   0.1094 B(  2-C ,  7-H ) :   0.9557
B(  3-C ,  4-C ) :   1.3850 B(  3-C , 10-C ) :   1.0300 B(  4-C ,  5-C ) :   1.4504
B(  4-C ,  8-H ) :   0.9612 B(  5-C ,  9-H ) :   0.9557 B( 10-C , 11-C ) :   1.9333
B( 10-C , 12-H ) :   0.9595 B( 11-C , 13-H ) :   0.9679 B( 11-C , 14-H ) :   0.9617
B( 15-C , 16-C ) :   1.9333 B( 15-C , 17-H ) :   0.9595 B( 16-C , 18-H ) :   0.9679
B( 16-C , 19-H ) :   0.9617

FINAL SINGLE POINT ENERGY     -382.042651810

DIPOLE MOMENT
-------------
                                X             Y             Z
Electronic contribution:     -0.00000       0.00000       0.00000
Nuclear contribution   :      0.00000       0.00000       0.00000
                        -----------------------------------------
Total Dipole Moment    :     -0.00000       0.00000       0.00000
                        -----------------------------------------
Magnitude (a.u.)       :      0.00000
Magnitude (Debye)      :      0.00000

VIBRATIONAL FREQUENCIES
-----------------------

   0:         0.00 cm**-1
   1:         0.00 cm**-1
   2:         0.00 cm**-1
   3:         0.00 cm**-1
   4:         0.00 cm**-1
   5:         0.00 cm**-1
   6:       296.23 cm**-1
   7:       356.70 cm**-1
   8:       368.27 cm**-1
   9:       402.73 cm**-1
  10:       479.41 cm**-1
  11:       578.12 cm**-1
  12:       679.71 cm**-1
  13:       704.11 cm**-1
  14:       798.13 cm**-1
  15:       867.18 cm**-1
  16:       946.90 cm**-1
  17:       976.60 cm**-1
  18:      1006.85 cm**-1
  19:      1026.57 cm**-1
  20:      1106.46 cm**-1
  21:      1164.98 cm**-1
  22:      1178.01 cm**-1
  23:      1235.45 cm**-1
  24:      1248.84 cm**-1
  25:      1254.05 cm**-1
  26:      1256.88 cm**-1
  27:      1267.82 cm**-1
  28:      1278.68 cm**-1
  29:      1299.04 cm**-1
  30:      1338.09 cm**-1
  31:      1346.47 cm**-1
  32:      1348.40 cm**-1
  33:      1350.88 cm**-1
  34:      1389.95 cm**-1
  35:      1393.13 cm**-1
  36:      1432.40 cm**-1
  37:      1432.54 cm**-1
  38:      1432.71 cm**-1
  39:      1443.83 cm**-1
  40:      1478.90 cm**-1
  41:      1493.41 cm**-1
  42:      1511.41 cm**-1
  43:      1539.31 cm**-1
  44:      1574.44 cm**-1
  45:      1662.20 cm**-1
  46:      1721.34 cm**-1
  47:      1784.91 cm**-1
  48:      1792.79 cm**-1
  49:      1874.40 cm**-1
  50:      3043.17 cm**-1
  51:      3055.48 cm**-1
  52:      3067.47 cm**-1
  53:      3071.01 cm**-1
  54:      3100.99 cm**-1
  55:      3382.94 cm**-1
  56:      3436.43 cm**-1
  57:      3452.44 cm**-1
  58:      3461.82 cm**-1
  59:      3518.73 cm**-1

IR SPECTRUM
-----------

 Mode    freq (cm**-1)   T**2         TX         TY         TZ
-------------------------------------------------------------------
   6:       296.23    0.000000  ( -0.000005   0.000000   0.000000)
   7:       356.70    0.014060  (  0.000000  -0.000000  -0.118574)
   8:       368.27    0.027463  (  0.067054   0.151549  -0.000000)
   9:       402.73    0.000000  ( -0.000005   0.000009   0.000000)
  10:       479.41    0.052896  ( -0.057469   0.222695  -0.000000)
  11:       578.12    0.000000  (  0.000005   0.000003   0.000000)
  12:       679.71    0.000000  ( -0.000006  -0.000008  -0.000000)
  13:       704.11    0.000000  ( -0.000000  -0.000000   0.000001)
  14:       798.13    0.276446  ( -0.506257  -0.141947  -0.000000)
  15:       867.18    0.000000  (  0.000000   0.000009   0.000000)
  16:       946.90    0.000000  (  0.000000  -0.000000   0.000020)
  17:       976.60    1.084441  (  0.000000  -0.000000  -1.041365)
  18:      1006.85    0.007030  ( -0.000000  -0.000000  -0.083845)
  19:      1026.57    0.273616  ( -0.197307  -0.484444  -0.000000)
  20:      1106.46    0.000000  ( -0.000002  -0.000004   0.000000)
  21:      1164.98   16.662582  (  0.000000  -0.000000  -4.081983)
  22:      1178.01    0.000000  (  0.000000  -0.000000  -0.000168)
  23:      1235.45    3.844350  (  1.113542  -1.613807  -0.000000)
  24:      1248.84    0.000000  (  0.000000  -0.000000   0.000001)
  25:      1254.05   17.368861  (  3.702846  -1.912536   0.000000)
  26:      1256.88    0.001123  (  0.000000  -0.000000   0.033511)
  27:      1267.82    0.000000  ( -0.000002   0.000000  -0.000000)
  28:      1278.68   15.889732  (  3.427880   2.034545  -0.000000)
  29:      1299.04    0.000000  (  0.000027  -0.000003  -0.000000)
  30:      1338.09    0.000000  ( -0.000000   0.000000   0.000264)
  31:      1346.47   16.327297  (  0.000000   0.000000  -4.040705)
  32:      1348.40   10.013865  (  2.082984   2.382235   0.000000)
  33:      1350.88    0.000000  ( -0.000000  -0.000000  -0.000017)
  34:      1389.95   91.968943  ( -0.000000  -0.000000   9.590044)
  35:      1393.13    0.000000  (  0.000016  -0.000010   0.000000)
  36:      1432.40   55.041541  (  4.522261  -5.881385  -0.000000)
  37:      1432.54    0.130869  ( -0.000000   0.000000  -0.361759)
  38:      1432.71    0.000001  ( -0.000418   0.000588   0.000000)
  39:      1443.83   24.484621  ( -4.319544   2.413744   0.000000)
  40:      1478.90    0.000000  ( -0.000000   0.000000  -0.000168)
  41:      1493.41    8.965138  ( -0.000000   0.000000   2.994184)
  42:      1511.41    0.000000  ( -0.000000   0.000000   0.000037)
  43:      1539.31   40.738730  ( -6.372447   0.361462  -0.000000)
  44:      1574.44    0.000000  (  0.000001   0.000022   0.000000)
  45:      1662.20   16.822207  (  0.184918   4.097318  -0.000000)
  46:      1721.34    4.748109  ( -1.040616  -1.914478  -0.000000)
  47:      1784.91    0.000000  ( -0.000007  -0.000001  -0.000000)
  48:      1792.79    0.000000  ( -0.000016   0.000006  -0.000000)
  49:      1874.40    0.000000  (  0.000003   0.000006   0.000000)
  50:      3043.17   50.596450  (  6.093488  -3.669584   0.000000)
  51:      3055.48   54.799369  ( -3.228945  -6.661327   0.000000)
  52:      3067.47   84.458612  ( -8.675761  -3.031465   0.000000)
  53:      3071.01   85.062429  (  8.541932   3.478192  -0.000000)
  54:      3100.99  243.535132  (  1.764423  15.505546  -0.000000)
  55:      3382.94    0.000000  ( -0.000010  -0.000015  -0.000000)
  56:      3436.43    0.000000  (  0.000037  -0.000024  -0.000000)
  57:      3452.44    0.000000  (  0.000008  -0.000003  -0.000000)
  58:      3461.82    0.000000  (  0.000003   0.000001   0.000000)
  59:      3518.73    0.000000  ( -0.000003  -0.000012  -0.000000)

--------------------------
THERMOCHEMISTRY AT 298.15K
--------------------------

Temperature         ... 298.15 K
Pressure            ... 1.00 atm
Total Mass          ... 130.19 AMU

Throughout the following assumptions are being made:
  (1) The electronic state is orbitally nondegenerate
  (2) There are no thermally accessible electronically excited states
  (3) Hindered rotations indicated by low frequency modes) are not
      treated as such but are treated as vibrations and this may
      case some error
  (4) All equations used are the standard statistical mechanics
      equations for an ideal gas
  (5) All vibrations are strinctly harmonic

------------
INNER ENERGY
------------

The inner energy is: U= E(el) + E(ZPE) + E(vib) + E(rot) + E(trans)
    E(el)   - is the total energy from the electronic structure calculation
              = E(kin-el) + E(nuc-el) + E(el-el) + E(nuc-nuc)
    E(ZPE)  - the the zero temperature vibrational energy from the frequency calculation
    E(vib)  - the the finite temperature correction to E(ZPE) due to population
              of excietd vibrational states
    E(rot)  - is the rotational thermal energy
    E(trans)- is the translational thermal energy

Summary of contributions to the inner energy U:
Electronic energy                ...   -382.04265181 Eh
Zero point energy                ...      0.19298283 Eh     121.10 kcal/mol
Thermal vibrational correction   ...      0.00262887 Eh       1.65 kcal/mol
Thermal rotational correction    ...      0.00141627 Eh       0.89 kcal/mol
Thermal translational correction ...      0.00141627 Eh       0.89 kcal/mol
-----------------------------------------------------------------------
Total thermal energy                   -381.84420756 Eh

Summary of corrections to the electronic energy:
(perhaps to be used in another calculation)
Total thermal correction                  0.00546142 Eh       3.43 kcal/mol
Non-thermal (ZPE) correction              0.19298283 Eh     121.10 kcal/mol
-----------------------------------------------------------------------
Total correction                          0.19844425 Eh     124.53 kcal/mol

--------
ENTHALPY
--------

The enthalpy is H = U + kB*T
                kB is Boltmann's constant
Total free energy                 ...   -381.84420756 Eh
Thermal Enthalpy correction       ...      0.00094421 Eh       0.59 kcal/mol
-----------------------------------------------------------------------
Total Enthalpy                    ...   -381.84326335 Eh

-------
ENTROPY
-------

The entropy contributions are T*S = T*(S(el)+S(vib)+S(rot)+S(trans)
     S(el)   - electronic entropy
     S(vib)  - vibrational entropy
     S(rot)  - rotational entropy
     S(trans)- translational entropy
The entropies will be listed as mutliplied by the temperature to get
units of energy

Electronic entropy                ...      0.00000000 Eh      0.00 kcal/mol
Vibrational entropy               ...      0.00372986 Eh      2.34 kcal/mol
Rotational entropy                ...      0.01296357 Eh      8.13 kcal/mol
Translational entropy             ...      0.01924489 Eh     12.08 kcal/mol
-----------------------------------------------------------------------
Final entropy term                ...      0.03593832 Eh     22.55 kcal/mol

CAUTION: The rotational entropy is not quite correctly treated here
         because it includes a symmetry number that is not yet croorectly
         implemented in ORCA!
For a nonlinear molecule the correct rotational entropy is:
    S(rot) = R*(ln(qrot/sn)+1.5)
    R    = 8.31441 J/mol/K = 1.987191683e-3 kcal/mol/K
    qrot = 614508.3865973
    sn is the rotational symmetry number. We have assumed 3 here
       if it is different for your molecule then you should correct
       the printed rotational entropy by manually evaluating the equation
       as given above

For convenience we print out the resulting values for sn=1 - 12:
 sn= 1  qrot/sn=  614508.3866 T*S(rot)=     8.79 kcal/mol T*S(tot)=    23.20 kcal/mol
 sn= 2  qrot/sn=  307254.1933 T*S(rot)=     8.37 kcal/mol T*S(tot)=    22.79 kcal/mol
 sn= 3  qrot/sn=  204836.1289 T*S(rot)=     8.13 kcal/mol T*S(tot)=    22.55 kcal/mol
 sn= 4  qrot/sn=  153627.0966 T*S(rot)=     7.96 kcal/mol T*S(tot)=    22.38 kcal/mol
 sn= 5  qrot/sn=  122901.6773 T*S(rot)=     7.83 kcal/mol T*S(tot)=    22.25 kcal/mol
 sn= 6  qrot/sn=  102418.0644 T*S(rot)=     7.72 kcal/mol T*S(tot)=    22.14 kcal/mol
 sn= 7  qrot/sn=   87786.9124 T*S(rot)=     7.63 kcal/mol T*S(tot)=    22.05 kcal/mol
 sn= 8  qrot/sn=   76813.5483 T*S(rot)=     7.55 kcal/mol T*S(tot)=    21.97 kcal/mol
 sn= 9  qrot/sn=   68278.7096 T*S(rot)=     7.48 kcal/mol T*S(tot)=    21.90 kcal/mol
 sn=10  qrot/sn=   61450.8387 T*S(rot)=     7.42 kcal/mol T*S(tot)=    21.84 kcal/mol
 sn=11  qrot/sn=   55864.3988 T*S(rot)=     7.36 kcal/mol T*S(tot)=    21.78 kcal/mol
 sn=12  qrot/sn=   51209.0322 T*S(rot)=     7.31 kcal/mol T*S(tot)=    21.73 kcal/mol

-------------------
GIBBS FREE ENTHALPY
-------------------

The Gibbs free enthalpy is G = H - T*S

Total enthalpy                    ...   -381.84326335 Eh
Total entropy correction          ...     -0.03593832 Eh    -22.55 kcal/mol
-----------------------------------------------------------------------
Final Gibbs free enthalpy         ...   -381.87920168 Eh

For completeness - the Gibbs free enthalpy minus the electronic energy
G-E(el)                           ...      0.16345014 Eh    102.57 kcal/mol

                             ****ORCA TERMINATED NORMALLY****
TOTAL RUN TIME: 0 days 1 hours 46 minutes 0 seconds 741 msec
